 Gaussian 16, Revision A.03,
 Gaussian 16:  ES64L-G16RevA.03 25-Dec-2016

 ------------------
 # UwB97XD/Def2TZVP
 ------------------

 ---------------
 something title
 ---------------
 Symbolic Z-matrix:
 Charge =  0 Multiplicity = 1

                         Standard orientation:
 ---------------------------------------------------------------------
 Center     Atomic      Atomic             Coordinates (Angstroms)
 Number     Number       Type             X           Y           Z
 ---------------------------------------------------------------------
      1          7           0       -0.568494    1.543351    0.043257
      2          6           0       -0.558783    0.255360    0.027985
      3          7           0       -1.707998   -0.425250    0.023450
      4          7           0       -2.807548   -0.675424   -0.121073
      5          8           0        2.944652   -0.229108   -0.040519
      6          7           0        1.771055   -0.008094   -0.135297
      7          6           0        0.654542   -0.528780    0.165800
      8          1           0       -1.472319    2.003984    0.056043
      9          1           0        0.531440   -1.572682    0.433042
 ---------------------------------------------------------------------

 SCF Done:  E(UwB97XD) =  -371.407626626     A.U. after   29 cycles

 The electronic state is 1-A.
 Alpha  occ. eigenvalues --  -19.28430 -14.65006 -14.61278 -14.53821 -14.44613
 Alpha  occ. eigenvalues --  -10.42437 -10.33967  -1.29771  -1.24994  -1.08113
 Alpha  occ. eigenvalues --   -0.96257  -0.93480  -0.74113  -0.67030  -0.65422
 Alpha  occ. eigenvalues --   -0.64188  -0.62503  -0.59331  -0.57511  -0.55575
 Alpha  occ. eigenvalues --   -0.48481  -0.46135  -0.39547  -0.32878  -0.25145
 Alpha virt. eigenvalues --   -0.09628  -0.05798   0.03658   0.10237   0.13977
 Alpha virt. eigenvalues --    0.15014   0.17981   0.19524   0.23907   0.27151
 Alpha virt. eigenvalues --    0.28958   0.30109   0.32223   0.33206   0.33559

  Beta  occ. eigenvalues --  -19.28430 -14.65006 -14.61278 -14.53821 -14.44613
  Beta  occ. eigenvalues --  -10.42437 -10.33967  -1.29771  -1.24994  -1.08113
  Beta  occ. eigenvalues --   -0.96257  -0.93480  -0.74113  -0.67030  -0.65422
  Beta  occ. eigenvalues --   -0.64188  -0.62503  -0.59331  -0.57511  -0.55575
  Beta  occ. eigenvalues --   -0.48481  -0.46135  -0.39547  -0.32878  -0.25145
  Beta virt. eigenvalues --   -0.09628  -0.05798   0.03658   0.10237   0.13977
  Beta virt. eigenvalues --    0.15014   0.17981   0.19524   0.23907   0.27151
  Beta virt. eigenvalues --    0.28958   0.30109   0.32223   0.33206   0.33559

 Mulliken charges and spin densities:
               1          2
     1  N   -0.366278  -0.000000
     2  C    0.253520  -0.000000
     3  N    0.132458  -0.000000
     4  N   -0.031850  -0.000000
     5  O   -0.308519   0.000000
     6  N    0.166334   0.000000
     7  C   -0.177075   0.000000
     8  H    0.220258   0.000000
     9  H    0.111151   0.000000
 Sum of Mulliken charges =  -0.00000  -0.00000

 Dipole moment (field-independent basis, Debye):
    X=             -5.4716    Y=             -1.6437    Z=              0.4418  Tot=              5.7302
 Quadrupole moment (field-independent basis, Debye-Ang):
   XX=            -44.6457   YY=            -38.3428   ZZ=            -39.1963
   XY=             -2.5279   XZ=              0.3573   YZ=              0.0660

 Normal termination of Gaussian 16 at Tue Jun 22 17:15:43 2021.
