 Gaussian 16, Revision A.03,
 Gaussian 16:  ES64L-G16RevA.03 25-Dec-2016

 ------------------
 # UwB97XD/Def2TZVP
 ------------------

 ---------------
 something title
 ---------------
 Symbolic Z-matrix:
 Charge =  0 Multiplicity = 1

                         Standard orientation:
 ---------------------------------------------------------------------
 Center     Atomic      Atomic             Coordinates (Angstroms)
 Number     Number       Type             X           Y           Z
 ---------------------------------------------------------------------
      1          7           0       -0.528025    1.548417    0.038057
      2          6           0       -0.563397    0.259818    0.003992
      3          7           0       -1.724026   -0.407007    0.064300
      4          7           0       -2.813642   -0.644347   -0.154038
      5          8           0        2.960103   -0.161930   -0.048512
      6          7           0        1.761733   -0.114288   -0.136689
      7          6           0        0.631776   -0.563606    0.183289
      8          1           0       -1.422161    2.031882    0.123070
      9          1           0        0.458783   -1.593134    0.459939
 ---------------------------------------------------------------------

 SCF Done:  E(UwB97XD) =  -371.399569834     A.U. after   27 cycles

 The electronic state is 1-A.
 Alpha  occ. eigenvalues --  -19.30340 -14.63074 -14.59158 -14.55692 -14.43955
 Alpha  occ. eigenvalues --  -10.41833 -10.35557  -1.28108  -1.26005  -1.07186
 Alpha  occ. eigenvalues --   -0.98050  -0.92483  -0.74181  -0.66959  -0.64040
 Alpha  occ. eigenvalues --   -0.63366  -0.61871  -0.59922  -0.57384  -0.56821
 Alpha  occ. eigenvalues --   -0.49496  -0.45670  -0.39155  -0.34129  -0.24739
 Alpha virt. eigenvalues --   -0.08957  -0.04295   0.02776   0.10054   0.13915
 Alpha virt. eigenvalues --    0.15069   0.18362   0.19007   0.24386   0.26991
 Alpha virt. eigenvalues --    0.28275   0.30113   0.31837   0.32541   0.34220

  Beta  occ. eigenvalues --  -19.30340 -14.63074 -14.59158 -14.55692 -14.43955
  Beta  occ. eigenvalues --  -10.41833 -10.35557  -1.28108  -1.26005  -1.07186
  Beta  occ. eigenvalues --   -0.98050  -0.92483  -0.74181  -0.66959  -0.64040
  Beta  occ. eigenvalues --   -0.63366  -0.61871  -0.59922  -0.57384  -0.56821
  Beta  occ. eigenvalues --   -0.49496  -0.45670  -0.39155  -0.34129  -0.24739
  Beta virt. eigenvalues --   -0.08957  -0.04295   0.02776   0.10054   0.13915
  Beta virt. eigenvalues --    0.15069   0.18362   0.19007   0.24386   0.26991
  Beta virt. eigenvalues --    0.28275   0.30113   0.31837   0.32541   0.34220

 Mulliken charges and spin densities:
               1          2
     1  N   -0.385968  -0.000000
     2  C    0.252138  -0.000000
     3  N    0.106838  -0.000000
     4  N   -0.063792  -0.000000
     5  O   -0.288069   0.000000
     6  N    0.192100   0.000000
     7  C   -0.161796   0.000000
     8  H    0.221853  -0.000000
     9  H    0.126695   0.000000
 Sum of Mulliken charges =  -0.00000  -0.00000

 Dipole moment (field-independent basis, Debye):
    X=             -4.2384    Y=             -1.7387    Z=              0.5573  Tot=              4.6149
 Quadrupole moment (field-independent basis, Debye-Ang):
   XX=            -45.0579   YY=            -38.0251   ZZ=            -39.3446
   XY=             -3.3171   XZ=             -0.0160   YZ=              0.1680

 Normal termination of Gaussian 16 at Tue Jun 22 16:09:18 2021.
