 Gaussian 16, Revision A.03,
 Gaussian 16:  ES64L-G16RevA.03 25-Dec-2016

 ------------------
 # UwB97XD/Def2TZVP
 ------------------

 ---------------
 something title
 ---------------
 Symbolic Z-matrix:
 Charge =  0 Multiplicity = 1

                         Standard orientation:
 ---------------------------------------------------------------------
 Center     Atomic      Atomic             Coordinates (Angstroms)
 Number     Number       Type             X           Y           Z
 ---------------------------------------------------------------------
      1          7           0       -0.593676    1.542110    0.045470
      2          6           0       -0.557577    0.254921    0.046575
      3          7           0       -1.698632   -0.437992    0.018771
      4          7           0       -2.799569   -0.695186   -0.123274
      5          8           0        2.939583   -0.267211   -0.038969
      6          7           0        1.772313    0.049395   -0.146290
      7          6           0        0.666349   -0.505372    0.168315
      8          1           0       -1.503347    1.988639    0.025029
      9          1           0        0.570995   -1.556545    0.434644
 ---------------------------------------------------------------------

 SCF Done:  E(UwB97XD) =  -371.412697541     A.U. after   29 cycles

 The electronic state is 1-A.
 Alpha  occ. eigenvalues --  -19.27153 -14.66334 -14.62766 -14.52636 -14.45120
 Alpha  occ. eigenvalues --  -10.42916 -10.33338  -1.30799  -1.22963  -1.08733
 Alpha  occ. eigenvalues --   -0.95222  -0.93985  -0.74145  -0.67364  -0.66353
 Alpha  occ. eigenvalues --   -0.64871  -0.63058  -0.58290  -0.57341  -0.54194
 Alpha  occ. eigenvalues --   -0.47295  -0.46352  -0.39894  -0.32166  -0.25766
 Alpha virt. eigenvalues --   -0.10218  -0.06910   0.03674   0.09979   0.13813
 Alpha virt. eigenvalues --    0.14869   0.17718   0.19950   0.23499   0.26953
 Alpha virt. eigenvalues --    0.28991   0.30122   0.32279   0.33071   0.33535

  Beta  occ. eigenvalues --  -19.27153 -14.66334 -14.62766 -14.52636 -14.45120
  Beta  occ. eigenvalues --  -10.42916 -10.33338  -1.30799  -1.22963  -1.08733
  Beta  occ. eigenvalues --   -0.95222  -0.93985  -0.74145  -0.67364  -0.66353
  Beta  occ. eigenvalues --   -0.64871  -0.63058  -0.58290  -0.57341  -0.54194
  Beta  occ. eigenvalues --   -0.47295  -0.46352  -0.39894  -0.32166  -0.25766
  Beta virt. eigenvalues --   -0.10218  -0.06910   0.03674   0.09979   0.13813
  Beta virt. eigenvalues --    0.14869   0.17718   0.19950   0.23499   0.26953
  Beta virt. eigenvalues --    0.28991   0.30122   0.32279   0.33071   0.33535

 Mulliken charges and spin densities:
               1          2
     1  N   -0.354113  -0.000000
     2  C    0.253008  -0.000000
     3  N    0.143169  -0.000000
     4  N   -0.006503  -0.000000
     5  O   -0.322746   0.000000
     6  N    0.136799   0.000000
     7  C   -0.176361   0.000000
     8  H    0.220321   0.000000
     9  H    0.106426   0.000000
 Sum of Mulliken charges =  -0.00000  -0.00000

 Dipole moment (field-independent basis, Debye):
    X=             -6.3785    Y=             -1.6288    Z=              0.4256  Tot=              6.5970
 Quadrupole moment (field-independent basis, Debye-Ang):
   XX=            -44.6794   YY=            -38.5129   ZZ=            -39.1267
   XY=             -2.0393   XZ=              0.5421   YZ=              0.0332

 Normal termination of Gaussian 16 at Tue Jun 22 17:35:34 2021.
