 Gaussian 16, Revision A.03,
 Gaussian 16:  ES64L-G16RevA.03 25-Dec-2016

 ------------------
 # UwB97XD/Def2TZVP
 ------------------

 ---------------
 something title
 ---------------
 Symbolic Z-matrix:
 Charge =  0 Multiplicity = 1

                         Standard orientation:
 ---------------------------------------------------------------------
 Center     Atomic      Atomic             Coordinates (Angstroms)
 Number     Number       Type             X           Y           Z
 ---------------------------------------------------------------------
      1          7           0       -0.555779    1.552891    0.035568
      2          6           0       -0.566068    0.264064    0.032588
      3          7           0       -1.715621   -0.423897    0.109525
      4          7           0       -2.795327   -0.669079   -0.210708
      5          8           0        2.961480   -0.193536   -0.056746
      6          7           0        1.756467   -0.072584   -0.174557
      7          6           0        0.640621   -0.533728    0.219930
      8          1           0       -1.456811    2.023346    0.111400
      9          1           0        0.489468   -1.568397    0.508670
 ---------------------------------------------------------------------

 SCF Done:  E(UwB97XD) =  -371.402342943     A.U. after   28 cycles

 The electronic state is 1-A.
 Alpha  occ. eigenvalues --  -19.29744 -14.63612 -14.60076 -14.55321 -14.44379
 Alpha  occ. eigenvalues --  -10.42229 -10.35323  -1.27700  -1.24644  -1.07298
 Alpha  occ. eigenvalues --   -0.97217  -0.92689  -0.74187  -0.67037  -0.64127
 Alpha  occ. eigenvalues --   -0.63167  -0.61870  -0.59636  -0.57095  -0.55875
 Alpha  occ. eigenvalues --   -0.48919  -0.45729  -0.39460  -0.33803  -0.25593
 Alpha virt. eigenvalues --   -0.09893  -0.05194   0.02035   0.09664   0.13443
 Alpha virt. eigenvalues --    0.15013   0.18519   0.19507   0.24106   0.27002
 Alpha virt. eigenvalues --    0.28271   0.30123   0.32020   0.32660   0.34071

  Beta  occ. eigenvalues --  -19.29744 -14.63612 -14.60076 -14.55321 -14.44379
  Beta  occ. eigenvalues --  -10.42229 -10.35323  -1.27700  -1.24644  -1.07298
  Beta  occ. eigenvalues --   -0.97217  -0.92689  -0.74187  -0.67037  -0.64127
  Beta  occ. eigenvalues --   -0.63167  -0.61870  -0.59636  -0.57095  -0.55875
  Beta  occ. eigenvalues --   -0.48919  -0.45729  -0.39460  -0.33803  -0.25593
  Beta virt. eigenvalues --   -0.09893  -0.05194   0.02035   0.09664   0.13443
  Beta virt. eigenvalues --    0.15013   0.18519   0.19507   0.24106   0.27002
  Beta virt. eigenvalues --    0.28271   0.30123   0.32020   0.32660   0.34071

 Mulliken charges and spin densities:
               1          2
     1  N   -0.374440   0.000000
     2  C    0.256158   0.000000
     3  N    0.093797   0.000000
     4  N   -0.042187   0.000000
     5  O   -0.296172  -0.000000
     6  N    0.166873  -0.000000
     7  C   -0.154708  -0.000000
     8  H    0.222936  -0.000000
     9  H    0.127744  -0.000000
 Sum of Mulliken charges =  -0.00000  -0.00000

 Dipole moment (field-independent basis, Debye):
    X=             -4.6511    Y=             -1.6635    Z=              0.6468  Tot=              4.9818
 Quadrupole moment (field-independent basis, Debye-Ang):
   XX=            -45.1518   YY=            -38.0852   ZZ=            -39.4386
   XY=             -3.0672   XZ=              0.0161   YZ=              0.1700

 Normal termination of Gaussian 16 at Tue Jun 22 15:33:59 2021.
