 Gaussian 16, Revision A.03,
 Gaussian 16:  ES64L-G16RevA.03 25-Dec-2016

 ------------------
 # UwB97XD/Def2TZVP
 ------------------

 ---------------
 something title
 ---------------
 Symbolic Z-matrix:
 Charge =  0 Multiplicity = 1

                         Standard orientation:
 ---------------------------------------------------------------------
 Center     Atomic      Atomic             Coordinates (Angstroms)
 Number     Number       Type             X           Y           Z
 ---------------------------------------------------------------------
      1          7           0       -0.576889    1.542964    0.043954
      2          6           0       -0.558378    0.255187    0.034175
      3          7           0       -1.704886   -0.429507    0.021892
      4          7           0       -2.804900   -0.682024   -0.121804
      5          8           0        2.942873   -0.241795   -0.040049
      6          7           0        1.771565    0.011079   -0.138898
      7          6           0        0.658515   -0.520990    0.166677
      8          1           0       -1.482683    1.998939    0.045637
      9          1           0        0.544650   -1.567347    0.433634
 ---------------------------------------------------------------------

 SCF Done:  E(UwB97XD) =  -371.409372442     A.U. after   30 cycles

 The electronic state is 1-A.
 Alpha  occ. eigenvalues --  -19.28009 -14.65435 -14.61762 -14.53430 -14.44784
 Alpha  occ. eigenvalues --  -10.42594 -10.33736  -1.30104  -1.24386  -1.08315
 Alpha  occ. eigenvalues --   -0.95888  -0.93672  -0.74118  -0.67118  -0.65724
 Alpha  occ. eigenvalues --   -0.64395  -0.62682  -0.59023  -0.57464  -0.55137
 Alpha  occ. eigenvalues --   -0.48120  -0.46217  -0.39662  -0.32640  -0.25336
 Alpha virt. eigenvalues --   -0.09822  -0.06159   0.03679   0.10163   0.13928
 Alpha virt. eigenvalues --    0.14972   0.17897   0.19675   0.23776   0.27097
 Alpha virt. eigenvalues --    0.28991   0.30117   0.32257   0.33290   0.33443

  Beta  occ. eigenvalues --  -19.28009 -14.65435 -14.61762 -14.53430 -14.44784
  Beta  occ. eigenvalues --  -10.42594 -10.33736  -1.30104  -1.24386  -1.08315
  Beta  occ. eigenvalues --   -0.95888  -0.93672  -0.74118  -0.67118  -0.65724
  Beta  occ. eigenvalues --   -0.64395  -0.62682  -0.59023  -0.57464  -0.55137
  Beta  occ. eigenvalues --   -0.48120  -0.46217  -0.39662  -0.32640  -0.25336
  Beta virt. eigenvalues --   -0.09822  -0.06159   0.03679   0.10163   0.13928
  Beta virt. eigenvalues --    0.14972   0.17897   0.19675   0.23776   0.27097
  Beta virt. eigenvalues --    0.28991   0.30117   0.32257   0.33290   0.33443

 Mulliken charges and spin densities:
               1          2
     1  N   -0.362048  -0.000000
     2  C    0.253656  -0.000000
     3  N    0.135967  -0.000000
     4  N   -0.023605  -0.000000
     5  O   -0.313273   0.000000
     6  N    0.157223   0.000000
     7  C   -0.177476   0.000000
     8  H    0.220251   0.000000
     9  H    0.109307   0.000000
 Sum of Mulliken charges =  -0.00000  -0.00000

 Dipole moment (field-independent basis, Debye):
    X=             -5.7656    Y=             -1.6338    Z=              0.4360  Tot=              6.0084
 Quadrupole moment (field-independent basis, Debye-Ang):
   XX=            -44.6434   YY=            -38.3964   ZZ=            -39.1747
   XY=             -2.3669   XZ=              0.4178   YZ=              0.0554

 Normal termination of Gaussian 16 at Tue Jun 22 17:22:25 2021.
