 Gaussian 16, Revision A.03,
 Gaussian 16:  ES64L-G16RevA.03 25-Dec-2016

 ------------------
 # UwB97XD/Def2TZVP
 ------------------

 ---------------
 something title
 ---------------
 Symbolic Z-matrix:
 Charge =  0 Multiplicity = 1

                         Standard orientation:
 ---------------------------------------------------------------------
 Center     Atomic      Atomic             Coordinates (Angstroms)
 Number     Number       Type             X           Y           Z
 ---------------------------------------------------------------------
      1          7           0       -0.541869    1.550677    0.036909
      2          6           0       -0.564717    0.261850    0.018322
      3          7           0       -1.719851   -0.415589    0.086851
      4          7           0       -2.804516   -0.656499   -0.182455
      5          8           0        2.960700   -0.177738   -0.052772
      6          7           0        1.759173   -0.093311   -0.155504
      7          6           0        0.636244   -0.548808    0.201671
      8          1           0       -1.439468    2.027675    0.117319
      9          1           0        0.474144   -1.580972    0.484292
 ---------------------------------------------------------------------

 SCF Done:  E(UwB97XD) =  -371.401429043     A.U. after   27 cycles

 The electronic state is 1-A.
 Alpha  occ. eigenvalues --  -19.30025 -14.63346 -14.59604 -14.55486 -14.44171
 Alpha  occ. eigenvalues --  -10.42031 -10.35413  -1.27977  -1.25364  -1.07257
 Alpha  occ. eigenvalues --   -0.97636  -0.92601  -0.74176  -0.66992  -0.64105
 Alpha  occ. eigenvalues --   -0.63284  -0.61871  -0.59811  -0.57256  -0.56366
 Alpha  occ. eigenvalues --   -0.49219  -0.45712  -0.39311  -0.33958  -0.25144
 Alpha virt. eigenvalues --   -0.09381  -0.04723   0.02429   0.09869   0.13688
 Alpha virt. eigenvalues --    0.15042   0.18471   0.19238   0.24257   0.26999
 Alpha virt. eigenvalues --    0.28302   0.30105   0.31925   0.32594   0.34166

  Beta  occ. eigenvalues --  -19.30025 -14.63346 -14.59604 -14.55486 -14.44171
  Beta  occ. eigenvalues --  -10.42031 -10.35413  -1.27977  -1.25364  -1.07257
  Beta  occ. eigenvalues --   -0.97636  -0.92601  -0.74176  -0.66992  -0.64105
  Beta  occ. eigenvalues --   -0.63284  -0.61871  -0.59811  -0.57256  -0.56366
  Beta  occ. eigenvalues --   -0.49219  -0.45712  -0.39311  -0.33958  -0.25144
  Beta virt. eigenvalues --   -0.09381  -0.04723   0.02429   0.09869   0.13688
  Beta virt. eigenvalues --    0.15042   0.18471   0.19238   0.24257   0.26999
  Beta virt. eigenvalues --    0.28302   0.30105   0.31925   0.32594   0.34166

 Mulliken charges and spin densities:
               1          2
     1  N   -0.380052   0.000000
     2  C    0.254939   0.000000
     3  N    0.100815   0.000000
     4  N   -0.053160   0.000000
     5  O   -0.292542  -0.000000
     6  N    0.180117  -0.000000
     7  C   -0.159200  -0.000000
     8  H    0.222379  -0.000000
     9  H    0.126705  -0.000000
 Sum of Mulliken charges =  -0.00000   0.00000

 Dipole moment (field-independent basis, Debye):
    X=             -4.4513    Y=             -1.6991    Z=              0.6016  Tot=              4.8024
 Quadrupole moment (field-independent basis, Debye-Ang):
   XX=            -45.0972   YY=            -38.0531   ZZ=            -39.3880
   XY=             -3.1897   XZ=             -0.0067   YZ=              0.1709

 Normal termination of Gaussian 16 at Tue Jun 22 15:51:19 2021.
