 Gaussian 16, Revision A.03,
 Gaussian 16:  ES64L-G16RevA.03 25-Dec-2016

 ------------------
 # UwB97XD/Def2TZVP
 ------------------

 ---------------
 something title
 ---------------
 Symbolic Z-matrix:
 Charge =  0 Multiplicity = 1

                         Standard orientation:
 ---------------------------------------------------------------------
 Center     Atomic      Atomic             Coordinates (Angstroms)
 Number     Number       Type             X           Y           Z
 ---------------------------------------------------------------------
      1          7           0       -0.560097    1.543711    0.042598
      2          6           0       -0.559191    0.255561    0.021800
      3          7           0       -1.711100   -0.420983    0.025009
      4          7           0       -2.810180   -0.668810   -0.120344
      5          8           0        2.946519   -0.216437   -0.040942
      6          7           0        1.770453   -0.027277   -0.131759
      7          6           0        0.650532   -0.536555    0.164883
      8          1           0       -1.461935    2.008958    0.066513
      9          1           0        0.518206   -1.577972    0.432396
 ---------------------------------------------------------------------

 SCF Done:  E(UwB97XD) =  -371.405873902     A.U. after   29 cycles

 The electronic state is 1-A.
 Alpha  occ. eigenvalues --  -19.28840 -14.64596 -14.60812 -14.54201 -14.44446
 Alpha  occ. eigenvalues --  -10.42284 -10.34214  -1.29454  -1.25524  -1.07921
 Alpha  occ. eigenvalues --   -0.96627  -0.93285  -0.74114  -0.66966  -0.65135
 Alpha  occ. eigenvalues --   -0.64007  -0.62339  -0.59591  -0.57546  -0.55979
 Alpha  occ. eigenvalues --   -0.48802  -0.46049  -0.39436  -0.33112  -0.24970
 Alpha virt. eigenvalues --   -0.09439  -0.05451   0.03623   0.10298   0.14020
 Alpha virt. eigenvalues --    0.15049   0.18058   0.19369   0.24031   0.27190
 Alpha virt. eigenvalues --    0.28900   0.30100   0.32177   0.33085   0.33695

  Beta  occ. eigenvalues --  -19.28840 -14.64596 -14.60812 -14.54201 -14.44446
  Beta  occ. eigenvalues --  -10.42284 -10.34214  -1.29454  -1.25524  -1.07921
  Beta  occ. eigenvalues --   -0.96627  -0.93285  -0.74114  -0.66966  -0.65135
  Beta  occ. eigenvalues --   -0.64007  -0.62339  -0.59591  -0.57546  -0.55979
  Beta  occ. eigenvalues --   -0.48802  -0.46049  -0.39436  -0.33112  -0.24970
  Beta virt. eigenvalues --   -0.09439  -0.05451   0.03623   0.10298   0.14020
  Beta virt. eigenvalues --    0.15049   0.18058   0.19369   0.24031   0.27190
  Beta virt. eigenvalues --    0.28900   0.30100   0.32177   0.33085   0.33695

 Mulliken charges and spin densities:
               1          2
     1  N   -0.370592  -0.000000
     2  C    0.253075  -0.000000
     3  N    0.129066  -0.000000
     4  N   -0.039762  -0.000000
     5  O   -0.303849   0.000000
     6  N    0.174632   0.000000
     7  C   -0.176089   0.000000
     8  H    0.220294   0.000000
     9  H    0.113227   0.000000
 Sum of Mulliken charges =  -0.00000  -0.00000

 Dipole moment (field-independent basis, Debye):
    X=             -5.1909    Y=             -1.6580    Z=              0.4482  Tot=              5.4677
 Quadrupole moment (field-independent basis, Debye-Ang):
   XX=            -44.6612   YY=            -38.2914   ZZ=            -39.2163
   XY=             -2.6852   XZ=              0.2985   YZ=              0.0767

 Normal termination of Gaussian 16 at Tue Jun 22 17:09:10 2021.
