 Gaussian 16, Revision A.03,
 Gaussian 16:  ES64L-G16RevA.03 25-Dec-2016

 ------------------
 # UwB97XD/Def2TZVP
 ------------------

 ---------------
 something title
 ---------------
 Symbolic Z-matrix:
 Charge =  0 Multiplicity = 1

                         Standard orientation:
 ---------------------------------------------------------------------
 Center     Atomic      Atomic             Coordinates (Angstroms)
 Number     Number       Type             X           Y           Z
 ---------------------------------------------------------------------
      1          7           0       -0.532632    1.549175    0.037694
      2          6           0       -0.563833    0.260475    0.008775
      3          7           0       -1.722641   -0.409897    0.071804
      4          7           0       -2.810607   -0.648351   -0.163528
      5          8           0        2.960282   -0.167201   -0.049964
      6          7           0        1.760896   -0.107268   -0.142934
      7          6           0        0.633275   -0.558704    0.189430
      8          1           0       -1.427925    2.030493    0.121170
      9          1           0        0.463907   -1.589125    0.468055
 ---------------------------------------------------------------------

 SCF Done:  E(UwB97XD) =  -371.400273578     A.U. after   27 cycles

 The electronic state is 1-A.
 Alpha  occ. eigenvalues --  -19.30231 -14.63165 -14.59303 -14.55619 -14.44028
 Alpha  occ. eigenvalues --  -10.41899 -10.35504  -1.28081  -1.25801  -1.07213
 Alpha  occ. eigenvalues --   -0.97913  -0.92525  -0.74178  -0.66968  -0.64067
 Alpha  occ. eigenvalues --   -0.63342  -0.61870  -0.59893  -0.57345  -0.56674
 Alpha  occ. eigenvalues --   -0.49407  -0.45686  -0.39207  -0.34071  -0.24869
 Alpha virt. eigenvalues --   -0.09088  -0.04432   0.02667   0.09995   0.13843
 Alpha virt. eigenvalues --    0.15060   0.18407   0.19077   0.24346   0.26994
 Alpha virt. eigenvalues --    0.28290   0.30107   0.31865   0.32557   0.34207

  Beta  occ. eigenvalues --  -19.30231 -14.63165 -14.59303 -14.55619 -14.44028
  Beta  occ. eigenvalues --  -10.41899 -10.35504  -1.28081  -1.25801  -1.07213
  Beta  occ. eigenvalues --   -0.97913  -0.92525  -0.74178  -0.66968  -0.64067
  Beta  occ. eigenvalues --   -0.63342  -0.61870  -0.59893  -0.57345  -0.56674
  Beta  occ. eigenvalues --   -0.49407  -0.45686  -0.39207  -0.34071  -0.24869
  Beta virt. eigenvalues --   -0.09088  -0.04432   0.02667   0.09995   0.13843
  Beta virt. eigenvalues --    0.15060   0.18407   0.19077   0.24346   0.26994
  Beta virt. eigenvalues --    0.28290   0.30107   0.31865   0.32557   0.34207

 Mulliken charges and spin densities:
               1          2
     1  N   -0.383975   0.000000
     2  C    0.253244   0.000000
     3  N    0.104973   0.000000
     4  N   -0.060315   0.000000
     5  O   -0.289640  -0.000000
     6  N    0.188258  -0.000000
     7  C   -0.161147  -0.000000
     8  H    0.222025  -0.000000
     9  H    0.126578  -0.000000
 Sum of Mulliken charges =   0.00000   0.00000

 Dipole moment (field-independent basis, Debye):
    X=             -4.3106    Y=             -1.7251    Z=              0.5720  Tot=              4.6781
 Quadrupole moment (field-independent basis, Debye-Ang):
   XX=            -45.0690   YY=            -38.0341   ZZ=            -39.3582
   XY=             -3.2741   XZ=             -0.0143   YZ=              0.1694

 Normal termination of Gaussian 16 at Tue Jun 22 16:03:12 2021.
