 Gaussian 16, Revision A.03,
 Gaussian 16:  ES64L-G16RevA.03 25-Dec-2016

 ------------------
 # UwB97XD/Def2TZVP
 ------------------

 ---------------
 something title
 ---------------
 Symbolic Z-matrix:
 Charge =  0 Multiplicity = 1

                         Standard orientation:
 ---------------------------------------------------------------------
 Center     Atomic      Atomic             Coordinates (Angstroms)
 Number     Number       Type             X           Y           Z
 ---------------------------------------------------------------------
      1          7           0       -0.509662    1.545334    0.039321
      2          6           0       -0.561686    0.257387   -0.015207
      3          7           0       -1.729508   -0.395147    0.034414
      4          7           0       -2.825718   -0.628792   -0.115919
      5          8           0        2.959590   -0.140850   -0.042403
      6          7           0        1.764918   -0.142631   -0.111971
      7          6           0        0.625680   -0.582908    0.158592
      8          1           0       -1.399138    2.037308    0.130515
      9          1           0        0.438245   -1.608729    0.427482
 ---------------------------------------------------------------------

 SCF Done:  E(UwB97XD) =  -371.396179492     A.U. after   26 cycles

 The electronic state is 1-A.
 Alpha  occ. eigenvalues --  -19.30798 -14.62706 -14.58617 -14.56019 -14.43670
 Alpha  occ. eigenvalues --  -10.41580 -10.35823  -1.28051  -1.26718  -1.07058
 Alpha  occ. eigenvalues --   -0.98578  -0.92293  -0.74209  -0.66942  -0.63875
 Alpha  occ. eigenvalues --   -0.63423  -0.61883  -0.59952  -0.57547  -0.57307
 Alpha  occ. eigenvalues --   -0.49821  -0.45584  -0.38948  -0.34377  -0.24277
 Alpha virt. eigenvalues --   -0.08542  -0.03806   0.03140   0.10274   0.14153
 Alpha virt. eigenvalues --    0.15106   0.18094   0.18807   0.24510   0.26970
 Alpha virt. eigenvalues --    0.28159   0.30170   0.31746   0.32498   0.34221

  Beta  occ. eigenvalues --  -19.30798 -14.62706 -14.58617 -14.56019 -14.43670
  Beta  occ. eigenvalues --  -10.41580 -10.35823  -1.28051  -1.26718  -1.07058
  Beta  occ. eigenvalues --   -0.98578  -0.92293  -0.74209  -0.66942  -0.63875
  Beta  occ. eigenvalues --   -0.63423  -0.61883  -0.59952  -0.57547  -0.57307
  Beta  occ. eigenvalues --   -0.49821  -0.45584  -0.38948  -0.34377  -0.24277
  Beta virt. eigenvalues --   -0.08542  -0.03806   0.03140   0.10274   0.14153
  Beta virt. eigenvalues --    0.15106   0.18094   0.18807   0.24510   0.26970
  Beta virt. eigenvalues --    0.28159   0.30170   0.31746   0.32498   0.34221

 Mulliken charges and spin densities:
               1          2
     1  N   -0.393944  -0.000000
     2  C    0.246178  -0.000000
     3  N    0.112389  -0.000000
     4  N   -0.076638  -0.000000
     5  O   -0.281224   0.000000
     6  N    0.205791   0.000000
     7  C   -0.162190   0.000000
     8  H    0.221218   0.000000
     9  H    0.128421   0.000000
 Sum of Mulliken charges =  -0.00000   0.00000

 Dipole moment (field-independent basis, Debye):
    X=             -3.9416    Y=             -1.7948    Z=              0.5001  Tot=              4.3598
 Quadrupole moment (field-independent basis, Debye-Ang):
   XX=            -45.0383   YY=            -37.9899   ZZ=            -39.3005
   XY=             -3.4935   XZ=             -0.0101   YZ=              0.1587

 Normal termination of Gaussian 16 at Tue Jun 22 16:31:59 2021.
