 Gaussian 16, Revision A.03,
 Gaussian 16:  ES64L-G16RevA.03 25-Dec-2016

 ------------------
 # UwB97XD/Def2TZVP
 ------------------

 ---------------
 something title
 ---------------
 Symbolic Z-matrix:
 Charge =  0 Multiplicity = 1

                         Standard orientation:
 ---------------------------------------------------------------------
 Center     Atomic      Atomic             Coordinates (Angstroms)
 Number     Number       Type             X           Y           Z
 ---------------------------------------------------------------------
      1          7           0       -0.518077    1.545127    0.039799
      2          6           0       -0.561265    0.257006   -0.009050
      3          7           0       -1.726464   -0.399484    0.032836
      4          7           0       -2.823159   -0.635505   -0.116669
      5          8           0        2.957189   -0.153388   -0.042292
      6          7           0        1.766071   -0.123373   -0.115093
      7          6           0        0.629918   -0.575220    0.159733
      8          1           0       -1.409664    2.032762    0.119721
      9          1           0        0.451640   -1.603723    0.428413
 ---------------------------------------------------------------------

 SCF Done:  E(UwB97XD) =  -371.397689480     A.U. after   26 cycles

 The electronic state is 1-A.
 Alpha  occ. eigenvalues --  -19.30551 -14.62944 -14.58897 -14.55790 -14.43756
 Alpha  occ. eigenvalues --  -10.41664 -10.35558  -1.28215  -1.26775  -1.07160
 Alpha  occ. eigenvalues --   -0.98304  -0.92422  -0.74184  -0.66919  -0.64016
 Alpha  occ. eigenvalues --   -0.63478  -0.61911  -0.60004  -0.57547  -0.57256
 Alpha  occ. eigenvalues --   -0.49760  -0.45648  -0.38998  -0.34191  -0.24348
 Alpha virt. eigenvalues --   -0.08653  -0.04019   0.03248   0.10329   0.14149
 Alpha virt. eigenvalues --    0.15117   0.18163   0.18819   0.24471   0.27079
 Alpha virt. eigenvalues --    0.28302   0.30135   0.31829   0.32565   0.34178

  Beta  occ. eigenvalues --  -19.30551 -14.62944 -14.58897 -14.55790 -14.43756
  Beta  occ. eigenvalues --  -10.41664 -10.35558  -1.28215  -1.26775  -1.07160
  Beta  occ. eigenvalues --   -0.98304  -0.92422  -0.74184  -0.66919  -0.64016
  Beta  occ. eigenvalues --   -0.63478  -0.61911  -0.60004  -0.57547  -0.57256
  Beta  occ. eigenvalues --   -0.49760  -0.45648  -0.38998  -0.34191  -0.24348
  Beta virt. eigenvalues --   -0.08653  -0.04019   0.03248   0.10329   0.14149
  Beta virt. eigenvalues --    0.15117   0.18163   0.18819   0.24471   0.27079
  Beta virt. eigenvalues --    0.28302   0.30135   0.31829   0.32565   0.34178

 Mulliken charges and spin densities:
               1          2
     1  N   -0.390748  -0.000000
     2  C    0.247554  -0.000000
     3  N    0.114660  -0.000000
     4  N   -0.071991  -0.000000
     5  O   -0.284081   0.000000
     6  N    0.202886   0.000000
     7  C   -0.165023   0.000000
     8  H    0.220962   0.000000
     9  H    0.125781   0.000000
 Sum of Mulliken charges =  -0.00000  -0.00000

 Dipole moment (field-independent basis, Debye):
    X=             -4.0868    Y=             -1.7704    Z=              0.4899  Tot=              4.4806
 Quadrupole moment (field-independent basis, Debye-Ang):
   XX=            -44.9402   YY=            -38.0429   ZZ=            -39.2914
   XY=             -3.3792   XZ=              0.0356   YZ=              0.1419

 Normal termination of Gaussian 16 at Tue Jun 22 16:37:46 2021.
