 Gaussian 16, Revision A.03,
 Gaussian 16:  ES64L-G16RevA.03 25-Dec-2016

 ------------------
 # UwB97XD/Def2TZVP
 ------------------

 ---------------
 something title
 ---------------
 Symbolic Z-matrix:
 Charge =  0 Multiplicity = 1

                         Standard orientation:
 ---------------------------------------------------------------------
 Center     Atomic      Atomic             Coordinates (Angstroms)
 Number     Number       Type             X           Y           Z
 ---------------------------------------------------------------------
      1          7           0       -0.526488    1.544895    0.040301
      2          6           0       -0.560846    0.256655   -0.002890
      3          7           0       -1.723411   -0.403808    0.031263
      4          7           0       -2.820587   -0.642200   -0.117412
      5          8           0        2.954878   -0.165951   -0.042127
      6          7           0        1.767132   -0.104129   -0.118287
      7          6           0        0.634116   -0.567517    0.160837
      8          1           0       -1.420166    2.028145    0.108974
      9          1           0        0.465007   -1.598668    0.429303
 ---------------------------------------------------------------------

 SCF Done:  E(UwB97XD) =  -371.399228989     A.U. after   27 cycles

 The electronic state is 1-A.
 Alpha  occ. eigenvalues --  -19.30268 -14.63214 -14.59215 -14.55527 -14.43863
 Alpha  occ. eigenvalues --  -10.41763 -10.35287  -1.28409  -1.26726  -1.07280
 Alpha  occ. eigenvalues --   -0.98006  -0.92569  -0.74163  -0.66902  -0.64189
 Alpha  occ. eigenvalues --   -0.63542  -0.61947  -0.60029  -0.57559  -0.57123
 Alpha  occ. eigenvalues --   -0.49656  -0.45718  -0.39062  -0.33993  -0.24438
 Alpha virt. eigenvalues --   -0.08783  -0.04258   0.03346   0.10363   0.14137
 Alpha virt. eigenvalues --    0.15119   0.18203   0.18865   0.24413   0.27154
 Alpha virt. eigenvalues --    0.28447   0.30111   0.31909   0.32643   0.34115

  Beta  occ. eigenvalues --  -19.30268 -14.63214 -14.59215 -14.55527 -14.43863
  Beta  occ. eigenvalues --  -10.41763 -10.35287  -1.28409  -1.26726  -1.07280
  Beta  occ. eigenvalues --   -0.98006  -0.92569  -0.74163  -0.66902  -0.64189
  Beta  occ. eigenvalues --   -0.63542  -0.61947  -0.60029  -0.57559  -0.57123
  Beta  occ. eigenvalues --   -0.49656  -0.45718  -0.39062  -0.33993  -0.24438
  Beta virt. eigenvalues --   -0.08783  -0.04258   0.03346   0.10363   0.14137
  Beta virt. eigenvalues --    0.15119   0.18203   0.18865   0.24413   0.27154
  Beta virt. eigenvalues --    0.28447   0.30111   0.31909   0.32643   0.34115

 Mulliken charges and spin densities:
               1          2
     1  N   -0.387171   0.000000
     2  C    0.248917   0.000000
     3  N    0.117149   0.000000
     4  N   -0.066695   0.000000
     5  O   -0.287361  -0.000000
     6  N    0.199052  -0.000000
     7  C   -0.167765  -0.000000
     8  H    0.220752  -0.000000
     9  H    0.123123  -0.000000
 Sum of Mulliken charges =  -0.00000  -0.00000

 Dipole moment (field-independent basis, Debye):
    X=             -4.2597    Y=             -1.7453    Z=              0.4802  Tot=              4.6283
 Quadrupole moment (field-independent basis, Debye-Ang):
   XX=            -44.8567   YY=            -38.0939   ZZ=            -39.2802
   XY=             -3.2558   XZ=              0.0837   YZ=              0.1266

 Normal termination of Gaussian 16 at Tue Jun 22 16:43:45 2021.
