 Gaussian 16, Revision A.03,
 Gaussian 16:  ES64L-G16RevA.03 25-Dec-2016

 ------------------
 # UwB97XD/Def2TZVP
 ------------------

 ---------------
 something title
 ---------------
 Symbolic Z-matrix:
 Charge =  0 Multiplicity = 1

                         Standard orientation:
 ---------------------------------------------------------------------
 Center     Atomic      Atomic             Coordinates (Angstroms)
 Number     Number       Type             X           Y           Z
 ---------------------------------------------------------------------
      1          7           0       -0.518830    1.546886    0.038725
      2          6           0       -0.562534    0.258562   -0.005596
      3          7           0       -1.726780   -0.401135    0.049332
      4          7           0       -2.819693   -0.636478   -0.135010
      5          8           0        2.959806   -0.151391   -0.045519
      6          7           0        1.763358   -0.128407   -0.124278
      7          6           0        0.628747   -0.573318    0.170968
      8          1           0       -1.410641    2.034622    0.126821
      9          1           0        0.448522   -1.601019    0.443710
 ---------------------------------------------------------------------

 SCF Done:  E(UwB97XD) =  -371.397969376     A.U. after   26 cycles

 The electronic state is 1-A.
 Alpha  occ. eigenvalues --  -19.30564 -14.62890 -14.58879 -14.55848 -14.43811
 Alpha  occ. eigenvalues --  -10.41703 -10.35681  -1.28113  -1.26384  -1.07126
 Alpha  occ. eigenvalues --   -0.98318  -0.92392  -0.74191  -0.66946  -0.63969
 Alpha  occ. eigenvalues --   -0.63401  -0.61876  -0.59954  -0.57457  -0.57092
 Alpha  occ. eigenvalues --   -0.49665  -0.45630  -0.39051  -0.34251  -0.24496
 Alpha virt. eigenvalues --   -0.08728  -0.04038   0.02974   0.10168   0.14046
 Alpha virt. eigenvalues --    0.15087   0.18244   0.18891   0.24456   0.26982
 Alpha virt. eigenvalues --    0.28228   0.30135   0.31787   0.32516   0.34231

  Beta  occ. eigenvalues --  -19.30564 -14.62890 -14.58879 -14.55848 -14.43811
  Beta  occ. eigenvalues --  -10.41703 -10.35681  -1.28113  -1.26384  -1.07126
  Beta  occ. eigenvalues --   -0.98318  -0.92392  -0.74191  -0.66946  -0.63969
  Beta  occ. eigenvalues --   -0.63401  -0.61876  -0.59954  -0.57457  -0.57092
  Beta  occ. eigenvalues --   -0.49665  -0.45630  -0.39051  -0.34251  -0.24496
  Beta virt. eigenvalues --   -0.08728  -0.04038   0.02974   0.10168   0.14046
  Beta virt. eigenvalues --    0.15087   0.18244   0.18891   0.24456   0.26982
  Beta virt. eigenvalues --    0.28228   0.30135   0.31787   0.32516   0.34231

 Mulliken charges and spin densities:
               1          2
     1  N   -0.389973   0.000000
     2  C    0.249447   0.000000
     3  N    0.110038   0.000000
     4  N   -0.070459   0.000000
     5  O   -0.284738  -0.000000
     6  N    0.199291  -0.000000
     7  C   -0.162435  -0.000000
     8  H    0.221525  -0.000000
     9  H    0.127305  -0.000000
 Sum of Mulliken charges =  -0.00000   0.00000

 Dipole moment (field-independent basis, Debye):
    X=             -4.0913    Y=             -1.7665    Z=              0.5284  Tot=              4.4876
 Quadrupole moment (field-independent basis, Debye-Ang):
   XX=            -45.0428   YY=            -38.0075   ZZ=            -39.3204
   XY=             -3.4044   XZ=             -0.0154   YZ=              0.1640

 Normal termination of Gaussian 16 at Tue Jun 22 16:20:50 2021.
