 Gaussian 16, Revision A.03,
 Gaussian 16:  ES64L-G16RevA.03 25-Dec-2016

 ------------------
 # UwB97XD/Def2TZVP
 ------------------

 ---------------
 something title
 ---------------
 Symbolic Z-matrix:
 Charge =  0 Multiplicity = 1

                         Standard orientation:
 ---------------------------------------------------------------------
 Center     Atomic      Atomic             Coordinates (Angstroms)
 Number     Number       Type             X           Y           Z
 ---------------------------------------------------------------------
      1          7           0       -0.551699    1.544046    0.041976
      2          6           0       -0.559601    0.255790    0.015620
      3          7           0       -1.714192   -0.416707    0.026569
      4          7           0       -2.812801   -0.662182   -0.119614
      5          8           0        2.948476   -0.203785   -0.041315
      6          7           0        1.769760   -0.046473   -0.128290
      7          6           0        0.646485   -0.544317    0.163929
      8          1           0       -1.451528    2.013862    0.077042
      9          1           0        0.504945   -1.583216    0.431697
 ---------------------------------------------------------------------

 SCF Done:  E(UwB97XD) =  -371.404142665     A.U. after   29 cycles

 The electronic state is 1-A.
 Alpha  occ. eigenvalues --  -19.29233 -14.64209 -14.60369 -14.54566 -14.44284
 Alpha  occ. eigenvalues --  -10.42139 -10.34473  -1.29157  -1.25968  -1.07739
 Alpha  occ. eigenvalues --   -0.96993  -0.93092  -0.74120  -0.66923  -0.64865
 Alpha  occ. eigenvalues --   -0.63853  -0.62197  -0.59794  -0.57568  -0.56342
 Alpha  occ. eigenvalues --   -0.49081  -0.45962  -0.39329  -0.33343  -0.24812
 Alpha virt. eigenvalues --   -0.09258  -0.05121   0.03573   0.10342   0.14058
 Alpha virt. eigenvalues --    0.15078   0.18126   0.19217   0.24146   0.27213
 Alpha virt. eigenvalues --    0.28817   0.30094   0.32121   0.32960   0.33822

  Beta  occ. eigenvalues --  -19.29233 -14.64209 -14.60369 -14.54566 -14.44284
  Beta  occ. eigenvalues --  -10.42139 -10.34473  -1.29157  -1.25968  -1.07739
  Beta  occ. eigenvalues --   -0.96993  -0.93092  -0.74120  -0.66923  -0.64865
  Beta  occ. eigenvalues --   -0.63853  -0.62197  -0.59794  -0.57568  -0.56342
  Beta  occ. eigenvalues --   -0.49081  -0.45962  -0.39329  -0.33343  -0.24812
  Beta virt. eigenvalues --   -0.09258  -0.05121   0.03573   0.10342   0.14058
  Beta virt. eigenvalues --    0.15078   0.18126   0.19217   0.24146   0.27213
  Beta virt. eigenvalues --    0.28817   0.30094   0.32121   0.32960   0.33822

 Mulliken charges and spin densities:
               1          2
     1  N   -0.374917  -0.000000
     2  C    0.252345  -0.000000
     3  N    0.125819  -0.000000
     4  N   -0.047264  -0.000000
     5  O   -0.299333   0.000000
     6  N    0.182075   0.000000
     7  C   -0.174584   0.000000
     8  H    0.220358   0.000000
     9  H    0.115501   0.000000
 Sum of Mulliken charges =  -0.00000  -0.00000

 Dipole moment (field-independent basis, Debye):
    X=             -4.9267    Y=             -1.6761    Z=              0.4552  Tot=              5.2239
 Quadrupole moment (field-independent basis, Debye-Ang):
   XX=            -44.6898   YY=            -38.2415   ZZ=            -39.2348
   XY=             -2.8376   XZ=              0.2416   YZ=              0.0879

 Normal termination of Gaussian 16 at Tue Jun 22 17:02:40 2021.
