 Gaussian 16, Revision A.03,
 Gaussian 16:  ES64L-G16RevA.03 25-Dec-2016

 ------------------
 # UwB97XD/Def2TZVP
 ------------------

 ---------------
 something title
 ---------------
 Symbolic Z-matrix:
 Charge =  0 Multiplicity = 1

                         Standard orientation:
 ---------------------------------------------------------------------
 Center     Atomic      Atomic             Coordinates (Angstroms)
 Number     Number       Type             X           Y           Z
 ---------------------------------------------------------------------
      1          7           0       -0.585283    1.542550    0.044691
      2          6           0       -0.557976    0.255040    0.040372
      3          7           0       -1.701764   -0.433754    0.020332
      4          7           0       -2.802241   -0.688611   -0.122537
      5          8           0        2.941184   -0.254496   -0.039532
      6          7           0        1.771984    0.030241   -0.142563
      7          6           0        0.662450   -0.513187    0.167515
      8          1           0       -1.493026    1.993824    0.035299
      9          1           0        0.557835   -1.561969    0.434168
 ---------------------------------------------------------------------

 SCF Done:  E(UwB97XD) =  -371.411076164     A.U. after   30 cycles

 The electronic state is 1-A.
 Alpha  occ. eigenvalues --  -19.27581 -14.65880 -14.62260 -14.53033 -14.44953
 Alpha  occ. eigenvalues --  -10.42755 -10.33525  -1.30448  -1.23706  -1.08523
 Alpha  occ. eigenvalues --   -0.95535  -0.93849  -0.74128  -0.67230  -0.66036
 Alpha  occ. eigenvalues --   -0.64624  -0.62869  -0.58673  -0.57406  -0.54674
 Alpha  occ. eigenvalues --   -0.47723  -0.46291  -0.39778  -0.32403  -0.25543
 Alpha virt. eigenvalues --   -0.10020  -0.06531   0.03685   0.10076   0.13874
 Alpha virt. eigenvalues --    0.14923   0.17808   0.19818   0.23639   0.27030
 Alpha virt. eigenvalues --    0.29002   0.30121   0.32277   0.33214   0.33466

  Beta  occ. eigenvalues --  -19.27581 -14.65880 -14.62260 -14.53033 -14.44953
  Beta  occ. eigenvalues --  -10.42755 -10.33525  -1.30448  -1.23706  -1.08523
  Beta  occ. eigenvalues --   -0.95535  -0.93849  -0.74128  -0.67230  -0.66036
  Beta  occ. eigenvalues --   -0.64624  -0.62869  -0.58673  -0.57406  -0.54674
  Beta  occ. eigenvalues --   -0.47723  -0.46291  -0.39778  -0.32403  -0.25543
  Beta virt. eigenvalues --   -0.10020  -0.06531   0.03685   0.10076   0.13874
  Beta virt. eigenvalues --    0.14923   0.17808   0.19818   0.23639   0.27030
  Beta virt. eigenvalues --    0.29002   0.30121   0.32277   0.33214   0.33466

 Mulliken charges and spin densities:
               1          2
     1  N   -0.357971   0.000000
     2  C    0.253478   0.000000
     3  N    0.139553   0.000000
     4  N   -0.015120   0.000000
     5  O   -0.318040  -0.000000
     6  N    0.147353  -0.000000
     7  C   -0.177246  -0.000000
     8  H    0.220271  -0.000000
     9  H    0.107722  -0.000000
 Sum of Mulliken charges =  -0.00000   0.00000

 Dipole moment (field-independent basis, Debye):
    X=             -6.0692    Y=             -1.6288    Z=              0.4306  Tot=              6.2987
 Quadrupole moment (field-independent basis, Debye-Ang):
   XX=            -44.6546   YY=            -38.4530   ZZ=            -39.1515
   XY=             -2.2035   XZ=              0.4795   YZ=              0.0446

 Normal termination of Gaussian 16 at Tue Jun 22 17:29:04 2021.
