 Gaussian 16, Revision A.03,
 Gaussian 16:  ES64L-G16RevA.03 25-Dec-2016

 ------------------
 # UwB97XD/Def2TZVP
 ------------------

 ---------------
 something title
 ---------------
 Symbolic Z-matrix:
 Charge =  0 Multiplicity = 1

                         Standard orientation:
 ---------------------------------------------------------------------
 Center     Atomic      Atomic             Coordinates (Angstroms)
 Number     Number       Type             X           Y           Z
 ---------------------------------------------------------------------
      1          7           0       -0.523423    1.547653    0.038400
      2          6           0       -0.562964    0.259180   -0.000799
      3          7           0       -1.725406   -0.404086    0.056810
      4          7           0       -2.816671   -0.640389   -0.144532
      5          8           0        2.959945   -0.156661   -0.047031
      6          7           0        1.762553   -0.121334   -0.130470
      7          6           0        0.630267   -0.568477    0.177136
      8          1           0       -1.416399    2.033259    0.124953
      9          1           0        0.453654   -1.597098    0.451824
 ---------------------------------------------------------------------

 SCF Done:  E(UwB97XD) =  -371.398798223     A.U. after   26 cycles

 The electronic state is 1-A.
 Alpha  occ. eigenvalues --  -19.30451 -14.62982 -14.59017 -14.55768 -14.43883
 Alpha  occ. eigenvalues --  -10.41767 -10.35616  -1.28119  -1.26200  -1.07157
 Alpha  occ. eigenvalues --   -0.98185  -0.92438  -0.74185  -0.66951  -0.64007
 Alpha  occ. eigenvalues --   -0.63385  -0.61873  -0.59942  -0.57421  -0.56961
 Alpha  occ. eigenvalues --   -0.49583  -0.45651  -0.39103  -0.34189  -0.24615
 Alpha virt. eigenvalues --   -0.08837  -0.04164   0.02879   0.10112   0.13983
 Alpha virt. eigenvalues --    0.15078   0.18307   0.18944   0.24423   0.26987
 Alpha virt. eigenvalues --    0.28254   0.30122   0.31811   0.32527   0.34228

  Beta  occ. eigenvalues --  -19.30451 -14.62982 -14.59017 -14.55768 -14.43883
  Beta  occ. eigenvalues --  -10.41767 -10.35616  -1.28119  -1.26200  -1.07157
  Beta  occ. eigenvalues --   -0.98185  -0.92438  -0.74185  -0.66951  -0.64007
  Beta  occ. eigenvalues --   -0.63385  -0.61873  -0.59942  -0.57421  -0.56961
  Beta  occ. eigenvalues --   -0.49583  -0.45651  -0.39103  -0.34189  -0.24615
  Beta virt. eigenvalues --   -0.08837  -0.04164   0.02879   0.10112   0.13983
  Beta virt. eigenvalues --    0.15078   0.18307   0.18944   0.24423   0.26987
  Beta virt. eigenvalues --    0.28254   0.30122   0.31811   0.32527   0.34228

 Mulliken charges and spin densities:
               1          2
     1  N   -0.387969   0.000000
     2  C    0.250870   0.000000
     3  N    0.108533   0.000000
     4  N   -0.067179   0.000000
     5  O   -0.286432  -0.000000
     6  N    0.195779  -0.000000
     7  C   -0.162226  -0.000000
     8  H    0.221687  -0.000000
     9  H    0.126937  -0.000000
 Sum of Mulliken charges =  -0.00000   0.00000

 Dipole moment (field-independent basis, Debye):
    X=             -4.1653    Y=             -1.7525    Z=              0.5428  Tot=              4.5514
 Quadrupole moment (field-independent basis, Debye-Ang):
   XX=            -45.0491   YY=            -38.0163   ZZ=            -39.3320
   XY=             -3.3605   XZ=             -0.0163   YZ=              0.1662

 Normal termination of Gaussian 16 at Tue Jun 22 16:15:03 2021.
