 Gaussian 16, Revision A.03,
 Gaussian 16:  ES64L-G16RevA.03 25-Dec-2016

 ------------------
 # UwB97XD/Def2TZVP
 ------------------

 ---------------
 something title
 ---------------
 Symbolic Z-matrix:
 Charge =  0 Multiplicity = 1

                         Standard orientation:
 ---------------------------------------------------------------------
 Center     Atomic      Atomic             Coordinates (Angstroms)
 Number     Number       Type             X           Y           Z
 ---------------------------------------------------------------------
      1          7           0       -0.514242    1.546112    0.039032
      2          6           0       -0.562109    0.257964   -0.010399
      3          7           0       -1.728147   -0.398155    0.041867
      4          7           0       -2.822708   -0.632612   -0.125472
      5          8           0        2.959688   -0.146120   -0.043976
      6          7           0        1.764146   -0.135506   -0.118111
      7          6           0        0.627218   -0.578128    0.164786
      8          1           0       -1.404888    2.035972    0.128675
      9          1           0        0.443385   -1.604895    0.435596
 ---------------------------------------------------------------------

 SCF Done:  E(UwB97XD) =  -371.397093194     A.U. after   24 cycles

 The electronic state is 1-A.
 Alpha  occ. eigenvalues --  -19.30680 -14.62798 -14.58746 -14.55932 -14.43740
 Alpha  occ. eigenvalues --  -10.41641 -10.35750  -1.28090  -1.26557  -1.07093
 Alpha  occ. eigenvalues --   -0.98449  -0.92343  -0.74199  -0.66942  -0.63924
 Alpha  occ. eigenvalues --   -0.63414  -0.61879  -0.59957  -0.57496  -0.57210
 Alpha  occ. eigenvalues --   -0.49745  -0.45608  -0.38999  -0.34313  -0.24383
 Alpha virt. eigenvalues --   -0.08629  -0.03919   0.03062   0.10222   0.14103
 Alpha virt. eigenvalues --    0.15097   0.18172   0.18845   0.24485   0.26976
 Alpha virt. eigenvalues --    0.28196   0.30151   0.31765   0.32506   0.34229

  Beta  occ. eigenvalues --  -19.30680 -14.62798 -14.58746 -14.55932 -14.43740
  Beta  occ. eigenvalues --  -10.41641 -10.35750  -1.28090  -1.26557  -1.07093
  Beta  occ. eigenvalues --   -0.98449  -0.92343  -0.74199  -0.66942  -0.63924
  Beta  occ. eigenvalues --   -0.63414  -0.61879  -0.59957  -0.57496  -0.57210
  Beta  occ. eigenvalues --   -0.49745  -0.45608  -0.38999  -0.34313  -0.24383
  Beta virt. eigenvalues --   -0.08629  -0.03919   0.03062   0.10222   0.14103
  Beta virt. eigenvalues --    0.15097   0.18172   0.18845   0.24485   0.26976
  Beta virt. eigenvalues --    0.28196   0.30151   0.31765   0.32506   0.34229

 Mulliken charges and spin densities:
               1          2
     1  N   -0.391967  -0.000000
     2  C    0.247878   0.000000
     3  N    0.111329  -0.000000
     4  N   -0.073618  -0.000000
     5  O   -0.282998   0.000000
     6  N    0.202631   0.000000
     7  C   -0.162423  -0.000000
     8  H    0.221368   0.000000
     9  H    0.127800   0.000000
 Sum of Mulliken charges =  -0.00000   0.00000

 Dipole moment (field-independent basis, Debye):
    X=             -4.0167    Y=             -1.7806    Z=              0.5141  Tot=              4.4236
 Quadrupole moment (field-independent basis, Debye-Ang):
   XX=            -45.0391   YY=            -37.9988   ZZ=            -39.3099
   XY=             -3.4488   XZ=             -0.0133   YZ=              0.1615

 Normal termination of Gaussian 16 at Tue Jun 22 16:26:06 2021.
