 Gaussian 16, Revision A.03,
 Gaussian 16:  ES64L-G16RevA.03 25-Dec-2016

 ------------------
 # UwB97XD/Def2TZVP
 ------------------

 ---------------
 something title
 ---------------
 Symbolic Z-matrix:
 Charge =  0 Multiplicity = 1

                         Standard orientation:
 ---------------------------------------------------------------------
 Center     Atomic      Atomic             Coordinates (Angstroms)
 Number     Number       Type             X           Y           Z
 ---------------------------------------------------------------------
      1          7           0       -0.534894    1.544637    0.040829
      2          6           0       -0.560429    0.256336    0.003276
      3          7           0       -1.720348   -0.408119    0.029695
      4          7           0       -2.818005   -0.648877   -0.118150
      5          8           0        2.952655   -0.178540   -0.041908
      6          7           0        1.768100   -0.084898   -0.121552
      7          6           0        0.638277   -0.559798    0.161905
      8          1           0       -1.430644    2.023455    0.098277
      9          1           0        0.478346   -1.593565    0.430148
 ---------------------------------------------------------------------

 SCF Done:  E(UwB97XD) =  -371.400813946     A.U. after   27 cycles

 The electronic state is 1-A.
 Alpha  occ. eigenvalues --  -19.29951 -14.63516 -14.59568 -14.55233 -14.43989
 Alpha  occ. eigenvalues --  -10.41877 -10.35013  -1.28632  -1.26573  -1.07417
 Alpha  occ. eigenvalues --   -0.97686  -0.92731  -0.74145  -0.66895  -0.64389
 Alpha  occ. eigenvalues --   -0.63623  -0.62002  -0.60010  -0.57572  -0.56921
 Alpha  occ. eigenvalues --   -0.49508  -0.45795  -0.39140  -0.33785  -0.24545
 Alpha virt. eigenvalues --   -0.08928  -0.04522   0.03434   0.10376   0.14117
 Alpha virt. eigenvalues --    0.15113   0.18207   0.18953   0.24338   0.27198
 Alpha virt. eigenvalues --    0.28586   0.30097   0.31985   0.32736   0.34035

  Beta  occ. eigenvalues --  -19.29951 -14.63516 -14.59568 -14.55233 -14.43989
  Beta  occ. eigenvalues --  -10.41877 -10.35013  -1.28632  -1.26573  -1.07417
  Beta  occ. eigenvalues --   -0.97686  -0.92731  -0.74145  -0.66895  -0.64389
  Beta  occ. eigenvalues --   -0.63623  -0.62002  -0.60010  -0.57572  -0.56921
  Beta  occ. eigenvalues --   -0.49508  -0.45795  -0.39140  -0.33785  -0.24545
  Beta virt. eigenvalues --   -0.08928  -0.04522   0.03434   0.10376   0.14117
  Beta virt. eigenvalues --    0.15113   0.18207   0.18953   0.24338   0.27198
  Beta virt. eigenvalues --    0.28586   0.30097   0.31985   0.32736   0.34035

 Mulliken charges and spin densities:
               1          2
     1  N   -0.383287   0.000000
     2  C    0.250209   0.000000
     3  N    0.119844   0.000000
     4  N   -0.060782   0.000000
     5  O   -0.291029  -0.000000
     6  N    0.194301  -0.000000
     7  C   -0.170333  -0.000000
     8  H    0.220584  -0.000000
     9  H    0.120492  -0.000000
 Sum of Mulliken charges =  -0.00000  -0.00000

 Dipole moment (field-independent basis, Debye):
    X=             -4.4586    Y=             -1.7206    Z=              0.4712  Tot=              4.8023
 Quadrupole moment (field-independent basis, Debye-Ang):
   XX=            -44.7873   YY=            -38.1435   ZZ=            -39.2669
   XY=             -3.1238   XZ=              0.1340   YZ=              0.1126

 Normal termination of Gaussian 16 at Tue Jun 22 16:49:41 2021.
