 Gaussian 16, Revision A.03,
 Gaussian 16:  ES64L-G16RevA.03 25-Dec-2016

 ------------------
 # UwB97XD/Def2TZVP
 ------------------

 ---------------
 something title
 ---------------
 Symbolic Z-matrix:
 Charge =  0 Multiplicity = 1

                         Standard orientation:
 ---------------------------------------------------------------------
 Center     Atomic      Atomic             Coordinates (Angstroms)
 Number     Number       Type             X           Y           Z
 ---------------------------------------------------------------------
      1          7           0       -0.543299    1.544354    0.041387
      2          6           0       -0.560014    0.256049    0.009445
      3          7           0       -1.717274   -0.412419    0.028130
      4          7           0       -2.815409   -0.655537   -0.118883
      5          8           0        2.950521   -0.191151   -0.041638
      6          7           0        1.768976   -0.065679   -0.124886
      7          6           0        0.642400   -0.552065    0.162936
      8          1           0       -1.441098    2.018694    0.087632
      9          1           0        0.491659   -1.588413    0.430947
 ---------------------------------------------------------------------

 SCF Done:  E(UwB97XD) =  -371.402452239     A.U. after   29 cycles

 The electronic state is 1-A.
 Alpha  occ. eigenvalues --  -19.29605 -14.63849 -14.59953 -14.54911 -14.44130
 Alpha  occ. eigenvalues --  -10.42002 -10.34741  -1.28882  -1.26319  -1.07571
 Alpha  occ. eigenvalues --   -0.97347  -0.92906  -0.74130  -0.66900  -0.64616
 Alpha  occ. eigenvalues --   -0.63725  -0.62084  -0.59934  -0.57576  -0.56658
 Alpha  occ. eigenvalues --   -0.49317  -0.45877  -0.39230  -0.33568  -0.24670
 Alpha virt. eigenvalues --   -0.09087  -0.04810   0.03510   0.10368   0.14091
 Alpha virt. eigenvalues --    0.15099   0.18178   0.19074   0.24248   0.27217
 Alpha virt. eigenvalues --    0.28711   0.30092   0.32057   0.32842   0.33936

  Beta  occ. eigenvalues --  -19.29605 -14.63849 -14.59953 -14.54911 -14.44130
  Beta  occ. eigenvalues --  -10.42002 -10.34741  -1.28882  -1.26319  -1.07571
  Beta  occ. eigenvalues --   -0.97347  -0.92906  -0.74130  -0.66900  -0.64616
  Beta  occ. eigenvalues --   -0.63725  -0.62084  -0.59934  -0.57576  -0.56658
  Beta  occ. eigenvalues --   -0.49317  -0.45877  -0.39230  -0.33568  -0.24670
  Beta virt. eigenvalues --   -0.09087  -0.04810   0.03510   0.10368   0.14091
  Beta virt. eigenvalues --    0.15099   0.18178   0.19074   0.24248   0.27217
  Beta virt. eigenvalues --    0.28711   0.30092   0.32057   0.32842   0.33936

 Mulliken charges and spin densities:
               1          2
     1  N   -0.379175   0.000000
     2  C    0.251371   0.000000
     3  N    0.122739   0.000000
     4  N   -0.054289   0.000000
     5  O   -0.295038  -0.000000
     6  N    0.188637  -0.000000
     7  C   -0.172635  -0.000000
     8  H    0.220454  -0.000000
     9  H    0.117936  -0.000000
 Sum of Mulliken charges =  -0.00000  -0.00000

 Dipole moment (field-independent basis, Debye):
    X=             -4.6817    Y=             -1.6972    Z=              0.4629  Tot=              5.0014
 Quadrupole moment (field-independent basis, Debye-Ang):
   XX=            -44.7318   YY=            -38.1925   ZZ=            -39.2517
   XY=             -2.9841   XZ=              0.1867   YZ=              0.0998

 Normal termination of Gaussian 16 at Tue Jun 22 16:56:10 2021.
