 Gaussian 16, Revision A.03,
 Gaussian 16:  ES64L-G16RevA.03 25-Dec-2016

 ------------------
 # UwB97XD/Def2TZVP
 ------------------

 ---------------
 something title
 ---------------
 Symbolic Z-matrix:
 Charge =  0 Multiplicity = 1

                         Standard orientation:
 ---------------------------------------------------------------------
 Center     Atomic      Atomic             Coordinates (Angstroms)
 Number     Number       Type             X           Y           Z
 ---------------------------------------------------------------------
      1          7           0       -0.537246    1.549929    0.037312
      2          6           0       -0.564273    0.261152    0.013552
      3          7           0       -1.721250   -0.412758    0.079321
      4          7           0       -2.807565   -0.652401   -0.173000
      5          8           0        2.960481   -0.172470   -0.051383
      6          7           0        1.760042   -0.100276   -0.149205
      7          6           0        0.634765   -0.553772    0.195557
      8          1           0       -1.433695    2.029091    0.119253
      9          1           0        0.469027   -1.585072    0.476173
 ---------------------------------------------------------------------

 SCF Done:  E(UwB97XD) =  -371.400897352     A.U. after   27 cycles

 The electronic state is 1-A.
 Alpha  occ. eigenvalues --  -19.30127 -14.63256 -14.59452 -14.55550 -14.44100
 Alpha  occ. eigenvalues --  -10.41965 -10.35456  -1.28037  -1.25587  -1.07236
 Alpha  occ. eigenvalues --   -0.97775  -0.92564  -0.74176  -0.66979  -0.64088
 Alpha  occ. eigenvalues --   -0.63315  -0.61870  -0.59856  -0.57302  -0.56522
 Alpha  occ. eigenvalues --   -0.49314  -0.45700  -0.39259  -0.34014  -0.25004
 Alpha virt. eigenvalues --   -0.09230  -0.04575   0.02551   0.09933   0.13767
 Alpha virt. eigenvalues --    0.15051   0.18443   0.19155   0.24303   0.26997
 Alpha virt. eigenvalues --    0.28299   0.30105   0.31894   0.32574   0.34188

  Beta  occ. eigenvalues --  -19.30127 -14.63256 -14.59452 -14.55550 -14.44100
  Beta  occ. eigenvalues --  -10.41965 -10.35456  -1.28037  -1.25587  -1.07236
  Beta  occ. eigenvalues --   -0.97775  -0.92564  -0.74176  -0.66979  -0.64088
  Beta  occ. eigenvalues --   -0.63315  -0.61870  -0.59856  -0.57302  -0.56522
  Beta  occ. eigenvalues --   -0.49314  -0.45700  -0.39259  -0.34014  -0.25004
  Beta virt. eigenvalues --   -0.09230  -0.04575   0.02551   0.09933   0.13767
  Beta virt. eigenvalues --    0.15051   0.18443   0.19155   0.24303   0.26997
  Beta virt. eigenvalues --    0.28299   0.30105   0.31894   0.32574   0.34188

 Mulliken charges and spin densities:
               1          2
     1  N   -0.382001  -0.000000
     2  C    0.254179  -0.000000
     3  N    0.102959  -0.000000
     4  N   -0.056766  -0.000000
     5  O   -0.291134   0.000000
     6  N    0.184262   0.000000
     7  C   -0.160281   0.000000
     8  H    0.222200  -0.000000
     9  H    0.126582   0.000000
 Sum of Mulliken charges =  -0.00000  -0.00000

 Dipole moment (field-independent basis, Debye):
    X=             -4.3816    Y=             -1.7119    Z=              0.5867  Tot=              4.7406
 Quadrupole moment (field-independent basis, Debye-Ang):
   XX=            -45.0822   YY=            -38.0435   ZZ=            -39.3727
   XY=             -3.2317   XZ=             -0.0112   YZ=              0.1704

 Normal termination of Gaussian 16 at Tue Jun 22 15:57:16 2021.
