 Gaussian 16, Revision A.03,
 Gaussian 16:  ES64L-G16RevA.03 25-Dec-2016

 ------------------
 # UwB97XD/Def2TZVP
 ------------------

 ---------------
 something title
 ---------------
 Symbolic Z-matrix:
 Charge =  0 Multiplicity = 1

                         Standard orientation:
 ---------------------------------------------------------------------
 Center     Atomic      Atomic             Coordinates (Angstroms)
 Number     Number       Type             X           Y           Z
 ---------------------------------------------------------------------
      1          7           0       -0.551135    1.552158    0.036038
      2          6           0       -0.565614    0.263305    0.027840
      3          7           0       -1.717036   -0.421158    0.101953
      4          7           0       -2.798397   -0.664837   -0.201310
      5          8           0        2.961200   -0.188271   -0.055453
      6          7           0        1.757385   -0.079465   -0.168180
      7          6           0        0.639172   -0.538786    0.213857
      8          1           0       -1.451025    2.024802    0.113393
      9          1           0        0.484364   -1.572635    0.500540
 ---------------------------------------------------------------------

 SCF Done:  E(UwB97XD) =  -371.402164865     A.U. after   26 cycles

 The electronic state is 1-A.
 Alpha  occ. eigenvalues --  -19.29833 -14.63524 -14.59916 -14.55371 -14.44311
 Alpha  occ. eigenvalues --  -10.42163 -10.35347  -1.27808  -1.24892  -1.07288
 Alpha  occ. eigenvalues --   -0.97357  -0.92663  -0.74181  -0.67021  -0.64123
 Alpha  occ. eigenvalues --   -0.63211  -0.61872  -0.59700  -0.57152  -0.56042
 Alpha  occ. eigenvalues --   -0.49021  -0.45726  -0.39412  -0.33853  -0.25439
 Alpha virt. eigenvalues --   -0.09713  -0.05033   0.02171   0.09735   0.13526
 Alpha virt. eigenvalues --    0.15023   0.18508   0.19416   0.24159   0.27001
 Alpha virt. eigenvalues --    0.28288   0.30114   0.31988   0.32637   0.34107

  Beta  occ. eigenvalues --  -19.29833 -14.63524 -14.59916 -14.55371 -14.44311
  Beta  occ. eigenvalues --  -10.42163 -10.35347  -1.27808  -1.24892  -1.07288
  Beta  occ. eigenvalues --   -0.97357  -0.92663  -0.74181  -0.67021  -0.64123
  Beta  occ. eigenvalues --   -0.63211  -0.61872  -0.59700  -0.57152  -0.56042
  Beta  occ. eigenvalues --   -0.49021  -0.45726  -0.39412  -0.33853  -0.25439
  Beta virt. eigenvalues --   -0.09713  -0.05033   0.02171   0.09735   0.13526
  Beta virt. eigenvalues --    0.15023   0.18508   0.19416   0.24159   0.27001
  Beta virt. eigenvalues --    0.28288   0.30114   0.31988   0.32637   0.34107

 Mulliken charges and spin densities:
               1          2
     1  N   -0.376266   0.000000
     2  C    0.255928   0.000000
     3  N    0.096215   0.000000
     4  N   -0.045852   0.000000
     5  O   -0.295068  -0.000000
     6  N    0.171414  -0.000000
     7  C   -0.156410  -0.000000
     8  H    0.222747  -0.000000
     9  H    0.127291  -0.000000
 Sum of Mulliken charges =  -0.00000   0.00000

 Dipole moment (field-independent basis, Debye):
    X=             -4.5862    Y=             -1.6749    Z=              0.6317  Tot=              4.9231
 Quadrupole moment (field-independent basis, Debye-Ang):
   XX=            -45.1322   YY=            -38.0739   ZZ=            -39.4210
   XY=             -3.1075   XZ=              0.0069   YZ=              0.1707

 Normal termination of Gaussian 16 at Tue Jun 22 15:39:41 2021.
