 Gaussian 16, Revision A.03,
 Gaussian 16:  ES64L-G16RevA.03 25-Dec-2016

 ------------------
 # UwB97XD/Def2TZVP
 ------------------

 ---------------
 something title
 ---------------
 Symbolic Z-matrix:
 Charge =  0 Multiplicity = 1

                         Standard orientation:
 ---------------------------------------------------------------------
 Center     Atomic      Atomic             Coordinates (Angstroms)
 Number     Number       Type             X           Y           Z
 ---------------------------------------------------------------------
      1          7           0       -0.546498    1.551421    0.036484
      2          6           0       -0.565163    0.262567    0.023085
      3          7           0       -1.718447   -0.418389    0.094395
      4          7           0       -2.801460   -0.660644   -0.191892
      5          8           0        2.960940   -0.183005   -0.054129
      6          7           0        1.758287   -0.086374   -0.161828
      7          6           0        0.637713   -0.543813    0.207770
      8          1           0       -1.445244    2.026245    0.115366
      9          1           0        0.479255   -1.576827    0.492416
 ---------------------------------------------------------------------

 SCF Done:  E(UwB97XD) =  -371.401856085     A.U. after   26 cycles

 The electronic state is 1-A.
 Alpha  occ. eigenvalues --  -19.29927 -14.63436 -14.59759 -14.55426 -14.44242
 Alpha  occ. eigenvalues --  -10.42098 -10.35377  -1.27901  -1.25132  -1.07274
 Alpha  occ. eigenvalues --   -0.97497  -0.92634  -0.74178  -0.67006  -0.64116
 Alpha  occ. eigenvalues --   -0.63250  -0.61872  -0.59759  -0.57206  -0.56205
 Alpha  occ. eigenvalues --   -0.49121  -0.45720  -0.39362  -0.33905  -0.25289
 Alpha virt. eigenvalues --   -0.09542  -0.04876   0.02302   0.09803   0.13608
 Alpha virt. eigenvalues --    0.15033   0.18493   0.19326   0.24209   0.27000
 Alpha virt. eigenvalues --    0.28298   0.30108   0.31956   0.32614   0.34138

  Beta  occ. eigenvalues --  -19.29927 -14.63436 -14.59759 -14.55426 -14.44242
  Beta  occ. eigenvalues --  -10.42098 -10.35377  -1.27901  -1.25132  -1.07274
  Beta  occ. eigenvalues --   -0.97497  -0.92634  -0.74178  -0.67006  -0.64116
  Beta  occ. eigenvalues --   -0.63250  -0.61872  -0.59759  -0.57206  -0.56205
  Beta  occ. eigenvalues --   -0.49121  -0.45720  -0.39362  -0.33905  -0.25289
  Beta virt. eigenvalues --   -0.09542  -0.04876   0.02302   0.09803   0.13608
  Beta virt. eigenvalues --    0.15033   0.18493   0.19326   0.24209   0.27000
  Beta virt. eigenvalues --    0.28298   0.30108   0.31956   0.32614   0.34138

 Mulliken charges and spin densities:
               1          2
     1  N   -0.378138  -0.000000
     2  C    0.255523  -0.000000
     3  N    0.098561  -0.000000
     4  N   -0.049515  -0.000000
     5  O   -0.293856   0.000000
     6  N    0.175832   0.000000
     7  C   -0.157910   0.000000
     8  H    0.222562   0.000000
     9  H    0.126942   0.000000
 Sum of Mulliken charges =  -0.00000  -0.00000

 Dipole moment (field-independent basis, Debye):
    X=             -4.5196    Y=             -1.6867    Z=              0.6166  Tot=              4.8633
 Quadrupole moment (field-independent basis, Debye-Ang):
   XX=            -45.1139   YY=            -38.0633   ZZ=            -39.4041
   XY=             -3.1483   XZ=             -0.0007   YZ=              0.1711

 Normal termination of Gaussian 16 at Tue Jun 22 15:45:23 2021.
